
                        S T E P       1


                                INCREMENT     1


 displacements (vx,vy,vz) for set NALL and time  0.1000000E+01

         1 -2.117582E-22  0.000000E+00 -2.117582E-22
         2  0.000000E+00  0.000000E+00  2.117582E-22
         3  7.320727E-06 -8.820229E-08 -2.137472E-22
         4  5.065424E-06 -9.063233E-08  4.087306E-22
