    1C
    1UUSER                                                              
    1UDATE              24.july.2026                                    
    1UTIME              15:06:10                                        
    1UHOST                                                              
    1UPGM               CalculiX                                        
    1UVERSION           Version 2.23                             
    1UCOMPILETIME       Sun Oct 19 18:23:34 CEST 2025                    
    1UDIR                                                               
    1UDBN                                                               
    1UMAT    1STEEL                                                     
    2C                             4                                     1
 -1         1 0.00000E+00 0.00000E+00 0.00000E+00
 -1         2 5.00000E+00 0.00000E+00 0.00000E+00
 -1         3 0.00000E+00 4.00000E+00 0.00000E+00
 -1         4 5.00000E+00 4.00000E+00 0.00000E+00
 -3
    3C                             3                                     1
 -1         1   11    0    1
 -2         1         3
 -1         2   11    0    1
 -2         2         4
 -1         3   11    0    1
 -2         3         4
 -3
    1PSTEP                         1           1           1          
  100CL  101 1.000000000           4                     0    1           1
 -4  STRESS      6    1
 -5  SXX         1    4    1    1
 -5  SYY         1    4    2    2
 -5  SZZ         1    4    3    3
 -5  SXY         1    4    1    2
 -5  SYZ         1    4    2    3
 -5  SZX         1    4    3    1
 -1         1-6.83897E-13-5.91041E+03 2.62824E+00-1.16415E-10 1.06880E+04 1.54614E-11
 -1         2-6.84397E-13-4.08919E+03-2.62824E+00-1.09139E-10 9.28801E+03 9.09495E-12
 -1         3-2.60940E-13-2.95389E+03-2.04328E+03-4.67963E-11 4.78928E+03 2.91038E-11
 -1         4-2.49590E-13-2.04328E+03-2.04591E+03-5.37135E-11 4.08854E+03 0.00000E+00
 -3
    1PSTEP                         2           1           1          
  100CL  101 1.000000000           4                     0    1           1
 -4  ERROR       1    1
 -5  STR(%)      1    1    0    0
 -1         1 3.46639E+00
 -1         2 4.71542E+00
 -1         3 1.87639E+00
 -1         4 2.50090E+00
 -3
 9999
