
                        S T E P       1


                                INCREMENT     1


 displacements (vx,vy,vz) for set NALL and time  0.1000000E+01

         1  0.000000E+00  0.000000E+00  0.000000E+00
         2 -5.714286E-04  0.000000E+00  0.000000E+00
         3 -5.714286E-04 -5.714286E-04  0.000000E+00
         4  0.000000E+00 -5.714286E-04  0.000000E+00
         5  0.000000E+00  0.000000E+00  1.904762E-03
         6 -5.714286E-04  2.276401E-20  1.904762E-03
         7 -5.714286E-04 -5.714286E-04  1.904762E-03
         8  0.000000E+00 -5.714286E-04  1.904762E-03
